ITEM: TIMESTEP
1019300
ITEM: NUMBER OF ATOMS
576
ITEM: BOX BOUNDS pp pp pp
-1.0507750000000000e+01 1.0507750000000000e+01
-1.0507750000000000e+01 1.0507750000000000e+01
-3.9866800127833713e+01 3.9866800127833713e+01
ITEM: ATOMS type id x y z 
2 215 -6.56366 -3.96115 -8.71724 
1 411 -7.5627 -7.86083 -8.45359 
2 83 -8.33359 -9.31844 -9.42595 
1 521 -9.43572 -10.4218 -8.85894 
2 410 -8.9627 -2.04365 -8.5245 
2 86 -6.33398 -6.79968 -8.83716 
1 361 -7.30911 -2.43266 -8.37042 
2 364 -4.14693 -5.21243 -8.40583 
2 146 -6.58033 -1.10631 -9.00573 
2 430 -1.42876 -4.90987 -8.84323 
2 572 -1.93208 -0.433214 -8.51684 
1 73 -5.77946 -5.3816 -8.20217 
1 267 -0.300921 -0.149206 -8.40569 
2 28 -3.86264 -4.3614 -2.22887 
2 60 -3.30746 -3.50147 -4.65107 
1 63 -2.59897 -6.65936 -4.92413 
2 66 -2.04167 -8.28483 -4.62772 
1 75 -7.7726 -0.92609 -5.90424 
1 91 -9.30502 -8.47177 -4.42634 
2 129 -6.51662 -6.19697 -1.87438 
1 135 -2.68112 -2.50453 -5.72381 
2 179 -4.63644 -1.79397 -1.88167 
2 248 -2.48158 -6.17641 -6.51369 
1 259 -1.72392 -9.8391 -4.07964 
2 285 -1.9412 -5.58055 -3.85592 
2 300 -6.2605 -3.82489 -3.11882 
2 309 -8.6068 -4.87361 -3.31617 
1 319 -5.14699 -3.31162 -1.97074 
2 336 -5.52073 -8.32727 -5.6071 
1 351 -2.67671 -4.21442 -3.30491 
2 352 -7.95223 -8.86283 -5.23951 
2 419 -4.17658 -6.38862 -4.70087 
2 422 -6.79428 -6.20276 -4.44814 
1 425 -5.6184 -6.67286 -5.41169 
1 483 -7.03178 -5.30259 -3.17227 
2 462 -1.68724 -3.13914 -2.60139 
2 23 -5.89263 -5.56316 -6.61606 
1 523 -6.66422 -9.43186 -6.00735 
2 200 -7.10427 -2.21702 -6.71457 
1 355 -0.949105 -2.85397 -1.22271 
2 417 -1.39051 -1.76349 -5.14811 
2 563 -7.47025 -0.800431 -4.34277 
2 551 -9.33374 -1.30932 -6.13216 
1 481 -9.82124 -5.34464 -4.24954 
2 467 -9.62863 -5.15491 -5.86245 
2 54 -3.4691 -1.27922 -6.42215 
2 168 -9.13997 -9.1025 -2.97842 
1 517 -6.50481 -9.96973 -0.867089 
2 57 -8.68976 -6.94282 -7.80497 
2 438 -1.1237 -1.22708 -0.946238 
2 227 -6.77118 -8.34868 -0.652554 
1 43 -9.92307 -0.992422 -1.29395 
2 44 -9.76289 -6.9449 -4.08076 
2 302 -2.46398 -3.59427 -6.9006 
1 451 -4.93972 -0.248991 -1.49551 
1 113 -9.97768 -6.03616 -7.17224 
1 291 -6.20931 -6.86412 -0.478204 
2 242 -5.9305 -3.5364 -0.5578 
2 434 -8.6754 -0.400467 -2.08326 
1 413 -10.1891 -1.51348 -7.49007 
2 287 -6.84032 -8.97833 -7.53345 
2 275 -0.851534 -9.80318 -2.66851 
1 5 -2.66568 -5.02756 -7.66189 
2 362 -5.26694 -10.4007 -1.90658 
1 341 -0.147301 -0.0476352 -0.424337 
2 224 -10.4177 -9.23566 -5.31733 
2 573 -0.431237 -6.9223 0.0599431 
2 366 -10.4068 -9.50778 -8.04074 
1 547 -3.1456 -0.0309955 -7.40418 
2 477 -6.76756 -5.67051 0.568271 
2 16 -4.15746 -9.42395 1.28022 
2 202 -6.94129 -2.40088 5.91622 
2 332 -6.14843 -8.65637 4.70467 
1 439 -4.02056 -7.79319 1.44786 
2 167 -10.5029 -9.96639 2.55168 
2 218 -5.45954 -0.194277 0.0194164 
2 506 -5.6119 -10.6423 3.13269 
2 432 -0.551381 -10.0363 5.87829 
2 105 -9.62949 -2.04736 2.9507 
2 189 -5.08729 -4.25123 6.50384 
2 112 -9.591 -1.67193 0.17498 
2 116 -0.991617 -5.32493 2.06053 
2 576 -2.6286 -10.2917 4.40221 
2 249 -4.02884 -3.602 4.05956 
1 519 -6.0986 -1.27705 4.99861 
1 53 -6.42787 -4.08779 0.867511 
1 271 -0.925405 -6.84888 1.55081 
2 260 -4.33797 -1.09902 2.28087 
2 14 -1.41394 -3.53822 0.141613 
2 446 -7.65018 -7.22981 3.49943 
2 333 -0.186717 -5.22373 4.89312 
2 479 -4.59834 -7.13096 0.0266531 
2 522 -5.38059 -6.01885 4.65584 
2 258 -5.13253 -3.80277 1.78984 
2 194 -9.75219 -8.53749 4.6107 
1 241 -9.18098 -4.62405 6.3309 
1 139 -6.07818 -7.23688 3.84319 
1 161 -1.34465 -6.25181 5.49223 
2 388 -9.5145 -1.02479 5.53961 
2 33 -8.17679 -0.446528 1.73169 
2 369 -2.84515 -5.49216 5.55922 
1 449 -9.98829 -2.19679 4.55302 
1 243 -4.32412 -4.83292 5.16435 
2 48 -8.79647 -6.0553 5.6455 
2 500 -4.68916 -1.06823 5.92378 
2 296 -5.10866 -7.55666 2.59786 
1 147 -0.444247 -3.96239 1.3982 
1 289 -6.53597 -10.1877 4.34763 
1 485 -4.78094 -0.780777 7.54307 
2 204 -0.553973 -6.57785 6.88621 
2 408 -7.72846 -3.23688 1.34156 
2 136 -9.51193 -3.59136 5.11413 
2 441 -7.8234 -4.13348 7.3486 
1 303 -9.68238 -10.0244 3.92269 
2 184 -2.47528 -7.38792 1.65841 
2 562 -10.1184 -6.25992 3.27902 
2 213 -0.351943 -10.1171 3.39649 
1 397 -6.30706 -3.30486 7.06928 
2 237 -5.95532 -2.08441 3.60231 
2 42 -1.39545 -7.73541 4.71769 
1 187 -4.66069 -2.65072 2.85652 
2 525 -8.0273 -10.2426 3.80153 
1 327 -1.27458 -9.39752 4.53048 
1 505 -9.08209 -7.03934 4.35816 
1 193 -8.76199 -1.94313 1.56735 
2 465 0.0767598 -2.80936 2.38581 
2 40 -10.5109 -4.65105 7.27834 
2 4 -6.29165 -10.4653 0.658503 
2 380 -5.5523 -2.20496 8.00244 
2 335 -3.37623 -0.0679866 7.88289 
2 152 -6.34962 1.96909 -8.57937 
2 546 -10.2458 9.32415 -9.6616 
2 165 -0.0284045 1.50027 -8.63668 
1 313 -6.23868 0.346083 -8.07645 
2 212 -3.97117 3.27691 -8.06057 
2 56 -7.48767 8.4862 -3.80969 
2 71 -8.22784 5.3439 -5.69095 
2 93 -8.44964 4.24034 -3.44777 
2 95 -9.24901 6.72951 -3.64118 
2 138 -4.95014 8.65991 -3.6375 
2 148 -3.46713 8.55745 -1.61596 
2 188 -3.35578 3.60451 -5.60507 
2 222 -5.60329 2.56437 -6.21309 
1 223 -4.19435 4.57231 -0.749766 
2 240 -7.89743 1.71719 -3.81011 
1 257 -9.06457 8.32038 -3.95938 
2 266 -4.37674 3.32416 -1.69401 
1 269 -4.15964 9.65029 -2.65434 
2 290 -7.0977 2.96837 -1.77216 
2 294 -4.26545 1.96872 -3.92457 
2 359 -6.00449 3.88994 -4.13426 
2 383 -3.63118 0.680816 -1.67926 
1 401 -3.57662 2.17568 -2.44613 
1 409 -9.16905 5.30443 -4.37322 
2 440 -3.39508 5.84572 -1.36491 
2 476 -6.14434 7.15088 -5.69606 
1 499 -7.31024 3.18132 -3.37761 
2 515 -2.06995 2.78987 -2.50761 
1 555 -6.19484 8.60184 -4.74075 
1 571 -4.76264 3.15258 -4.9206 
1 471 -2.78964 7.25914 -0.803696 
1 121 -7.07267 6.05943 -6.55437 
2 220 -9.25648 8.60388 -5.47249 
2 513 -9.70708 9.42309 -2.95223 
1 7 -8.20642 2.94043 -0.592734 
1 221 -0.730676 2.80185 -1.69096 
2 490 -9.65902 2.60182 -1.21596 
2 186 -1.23952 7.52877 -0.952306 
2 554 -0.552654 1.38557 -0.996342 
1 421 -8.94238 8.30511 -7.05111 
2 350 -2.65659 1.37587 -6.79158 
2 356 -5.54382 5.28589 -0.258757 
1 423 -2.71492 2.95671 -7.01523 
2 566 -7.85668 7.12735 -7.49453 
2 191 -6.26767 4.85324 -7.38348 
2 120 -6.33113 10.0129 -5.62621 
2 32 -1.23337 3.51171 -7.33615 
2 386 -0.249101 4.14424 -0.965141 
1 329 -5.58554 3.2392 -7.71904 
2 225 -7.10612 0.316141 -6.70281 
1 205 -7.63734 0.270345 -3.14677 
2 426 -6.1197 0.289201 -2.45308 
2 131 -7.7697 10.2929 -1.49113 
1 293 -9.24708 10.6395 -2.01822 
2 347 -8.65059 9.6605 -7.82985 
2 261 -3.15981 10.5383 -3.62341 
2 334 -0.582575 10.4461 -5.05548 
2 6 -4.64076 0.223764 -7.99891 
2 288 -6.25384 0.936915 2.28261 
1 247 -9.74902 0.427727 6.1821 
2 64 -6.3725 9.74898 5.65078 
2 141 -4.41498 8.87381 1.48385 
1 511 -9.04663 5.35791 4.48432 
2 394 -8.89424 2.05338 2.8096 
1 199 -4.978 0.273848 1.5111 
2 382 -5.26309 4.87473 7.05268 
2 210 -6.7194 0.255564 5.15951 
1 3 -3.29099 2.88185 1.67613 
2 448 -6.25259 4.67752 2.07194 
1 41 -5.1303 8.64035 5.94097 
1 533 -0.545023 1.45837 2.15459 
1 77 -5.0852 10.3192 1.67177 
2 532 -2.4945 8.38865 2.96941 
2 308 -0.401906 0.167431 1.19972 
2 466 -8.14163 4.44945 0.15856 
2 114 -4.39475 6.42469 2.78622 
1 219 -10.0864 2.53763 3.87633 
2 273 -7.83434 1.83739 0.530955 
1 365 -7.87807 1.08692 1.95036 
2 312 -5.07835 7.06681 6.2765 
1 447 -3.92437 5.91974 6.83985 
2 263 -0.556692 0.715981 3.59374 
2 21 -1.1882 2.83529 5.29497 
2 345 -7.6601 6.71788 1.05214 
1 231 -5.00757 4.98102 3.03329 
2 81 -9.51537 7.97719 2.88184 
1 279 -1.6599 3.67647 6.62827 
2 176 -9.91401 4.0504 4.58119 
2 424 -1.76735 2.43271 1.82808 
2 106 -4.22702 8.75734 4.58571 
1 17 -0.42315 1.41154 5.13297 
1 463 -6.86332 1.13323 6.49968 
2 470 -7.69284 5.02882 5.33991 
2 68 -5.48012 4.81514 4.54107 
2 150 -9.53926 6.83745 5.1419 
2 306 -9.97269 1.36594 4.94821 
1 197 -6.30239 4.29223 5.8326 
1 295 -6.90969 5.30516 0.704035 
2 496 -2.77226 4.84741 6.32444 
2 520 -3.00831 6.95452 7.68482 
2 228 -8.89351 5.56028 2.85389 
2 160 -6.47512 2.67104 6.04772 
1 133 -10.3367 8.06437 4.3226 
2 561 -3.98639 1.47305 1.38595 
2 508 -2.10524 2.34466 7.53715 
2 429 -10.2725 9.68119 4.74207 
2 480 -1.92041 8.42887 5.67309 
2 510 -5.88769 0.453602 7.59988 
1 101 -2.00417 0.697452 7.54951 
2 270 -0.257832 4.32664 7.1531 
1 403 -9.23003 6.80158 1.84911 
1 283 -3.57961 7.66948 2.04267 
1 51 -2.47127 8.48313 7.24192 
1 149 -2.69728 9.10358 4.40509 
2 140 -8.41886 0.948183 6.93331 
2 38 -3.98757 9.27823 7.02688 
2 22 -3.40515 3.87832 0.46288 
2 528 -1.30401 0.425083 6.07747 
2 492 -2.85575 7.04438 0.728766 
2 203 -3.98516 3.71386 2.86967 
2 348 -1.27417 9.15824 8.04437 
2 76 -0.931149 0.157351 8.69956 
1 391 0.158038 9.70325 8.63971 
1 541 6.54582 -4.20495 -9.8352 
2 530 3.60231 -5.9323 -8.45686 
1 173 5.0292 -1.57314 -9.84691 
2 314 6.02308 -5.82093 -9.78428 
2 384 8.19543 -4.14075 -9.79779 
2 396 5.74604 -2.83033 -10.5989 
2 524 3.43363 -1.95204 -9.82707 
1 545 1.97723 -2.08528 -8.92964 
2 482 6.05469 -3.85506 -8.34694 
2 172 5.18523 -8.07668 -8.37515 
2 354 0.762823 -0.941639 -9.4198 
1 457 5.18286 -6.44207 -8.47399 
2 418 1.2379 -3.85593 -9.71807 
2 299 5.79207 -1.42857 -8.45063 
1 15 0.191892 -4.55021 -8.68455 
1 229 9.09562 -4.12797 -8.36636 
2 8 10.3171 -5.16874 -8.33187 
2 47 0.534191 -3.18664 -7.96245 
2 11 2.815 -6.58213 -6.00678 
1 13 7.07274 -1.42935 -2.3887 
1 31 4.38643 -2.43341 -3.27707 
2 45 9.0499 -4.17156 -1.19542 
2 62 6.75308 -1.63279 -0.773588 
2 80 4.0937 -6.0769 -3.62683 
1 137 2.77264 -6.29599 -4.43571 
2 143 6.40219 -8.54977 -3.50875 
2 166 7.97565 -2.68323 -2.90462 
2 226 1.98915 -4.85232 -4.47778 
2 250 2.69693 -4.064 -6.65348 
2 310 5.64684 -1.43783 -3.19177 
1 353 2.46135 -9.16243 -3.86041 
2 360 4.95527 -5.79152 -1.10873 
2 374 5.04127 -3.78365 -2.68068 
1 377 5.21133 -5.34402 -2.67783 
2 393 1.96625 -7.56028 -3.8381 
2 402 3.65057 -2.86088 -4.61589 
2 414 6.73371 -6.0477 -2.88315 
1 469 2.25274 -3.50295 -5.19973 
1 473 7.14845 -7.62325 -2.43054 
2 474 8.62935 -8.33755 -2.15452 
2 498 6.56096 -2.9268 -6.20494 
2 549 1.13563 -2.33343 -5.08149 
2 238 6.53469 -7.60829 -0.911888 
1 65 9.39549 -3.42937 -2.56988 
1 233 5.40035 -9.50948 -4.34388 
2 117 1.44355 -5.71381 -1.35073 
1 339 2.77968 -1.48698 -0.80811 
2 134 3.29281 -1.70251 -2.35684 
2 454 4.02515 -9.37057 -3.54425 
2 58 5.28117 -9.14421 -5.87712 
1 55 8.96238 -9.64936 -1.2147 
1 307 1.57278 -4.2352 -0.660111 
1 99 2.53379 -5.58109 -7.2716 
2 110 7.61519 -0.615184 -6.91446 
2 274 2.06772 -9.95208 -5.23002 
1 255 9.95073 -8.85517 -6.78333 
1 337 6.30143 -1.47217 -6.93553 
1 433 6.57272 -4.40143 -6.93365 
2 444 1.74213 -10.1164 -2.82687 
2 526 0.581346 -3.21334 -1.51771 
2 550 9.92936 -4.46887 -3.6532 
2 512 1.32112 -0.71434 -0.555135 
2 376 8.47465 -9.50216 -6.73458 
2 564 5.00311 -0.755839 -6.30385 
1 25 1.04656 -7.11228 -0.618352 
1 487 0.464047 -10.1069 -1.80409 
2 96 2.83446 -3.0271 -0.369622 
2 420 8.14051 -4.69232 -7.22952 
2 548 5.78779 -5.85798 -7.01866 
1 495 5.12437 -9.54128 -7.43283 
2 156 10.0006 -7.24082 -6.8022 
2 338 0.809065 -8.73299 -1.04093 
2 358 2.64027 -1.26343 -7.63067 
2 518 9.67684 -2.67458 -7.75251 
2 236 10.054 -0.111496 -7.72915 
2 164 3.70558 -0.213739 -0.165369 
2 320 7.7418 -0.0136281 -2.87484 
1 245 0.0804018 -1.17066 -5.43308 
2 456 1.0427 -5.60464 -7.82438 
2 468 10.3322 -2.12481 -2.20084 
2 78 0.026658 -0.577219 -6.90383 
2 10 3.81028 -10.3622 -7.92939 
2 539 10.5507 -10.0578 -1.11088 
1 497 3.5946 -0.166957 -6.9293 
2 262 2.2546 -6.35633 7.12808 
2 318 4.66734 -4.14602 3.95375 
1 459 5.98809 -6.37235 0.0421229 
2 442 7.81805 -8.00961 4.84855 
1 387 8.94453 -4.72489 6.8183 
2 503 2.34657 -4.02872 2.9252 
2 177 6.39238 -5.88898 5.48255 
2 542 6.52026 -10.3309 5.21213 
2 9 8.02212 -9.53567 2.9794 
1 181 1.10236 -10.0547 6.11955 
2 326 6.91546 -2.69262 4.4302 
1 183 9.17032 -9.29456 1.90157 
1 543 5.55329 -2.86436 3.5621 
2 484 3.17228 -7.66327 2.82998 
2 132 0.919836 -4.44345 0.761216 
1 315 6.97359 -9.15994 4.09797 
2 170 0.918974 -2.6552 4.74789 
1 67 6.92349 -1.74777 0.839018 
1 281 8.11613 -2.11342 5.43386 
1 97 1.44568 -2.61666 3.15856 
2 346 8.15921 -6.12765 3.17509 
2 538 1.28914 -8.50196 6.26464 
2 36 8.93603 -5.71572 5.56134 
1 461 1.74823 -7.93661 2.08952 
2 50 5.64108 -8.48988 3.39578 
2 162 7.7964 -0.697794 6.25242 
2 70 2.46386 -1.44335 2.68613 
2 398 2.37952 -4.48805 5.39192 
2 239 5.30821 -6.88591 1.40189 
2 100 8.63816 -9.71372 0.40271 
2 26 7.10114 -5.18715 0.336276 
2 357 4.91868 -5.13926 7.52502 
2 196 7.10315 -10.1057 7.75565 
2 246 7.70241 -5.33596 7.67288 
2 282 5.92044 -2.60776 1.98674 
2 59 0.328481 -3.89804 7.23202 
1 385 9.55484 -6.29112 2.37854 
2 323 7.18221 -0.19132 1.35202 
2 568 1.81688 -9.56906 2.1195 
2 370 8.30642 -3.37135 6.42546 
2 400 6.17431 -7.47951 7.38629 
2 124 4.75501 -9.49872 1.14166 
1 553 3.24363 -4.76489 4.02266 
2 234 0.263051 -7.46257 2.51248 
2 450 9.44016 -2.08701 4.55607 
2 537 9.5197 -5.12841 1.23629 
1 475 4.6416 -8.17943 2.18273 
2 216 8.19119 -2.81151 0.93493 
2 404 9.48509 -7.75128 1.74254 
2 560 2.08298 -7.32794 0.563838 
1 151 6.28787 -5.92379 7.15808 
2 24 4.64122 -1.60745 3.93666 
1 535 3.68794 -0.468457 3.17844 
1 125 7.79523 -6.41882 4.6897 
1 531 0.87197 -7.30402 7.25269 
1 103 0.809474 -4.13234 5.60752 
1 567 8.46747 -4.32547 0.329149 
2 316 2.96925 -5.29697 11.494 
2 368 7.01973 -8.21144 12.3747 
2 502 4.91174 -0.888311 10.8586 
2 52 5.49753 -6.37032 11.4012 
1 61 4.50003 -5.24695 10.828 
2 92 3.36895 -6.27518 9.35571 
2 102 6.82694 -8.03495 9.78612 
1 367 5.11081 -2.16546 9.74078 
2 128 4.82683 -9.05327 11.1823 
1 171 6.00412 -7.89772 11.1668 
1 399 1.24262 -8.85107 9.89517 
2 244 4.82885 -3.74563 10.3052 
2 494 6.64931 -2.07513 9.20768 
2 284 1.30087 -7.54792 10.9835 
1 343 4.27292 -10.0671 9.9229 
1 509 0.434715 -0.622849 9.2011 
1 1 6.37317 -8.74486 8.30238 
2 174 2.69518 -9.65712 9.96577 
1 49 1.65274 -5.94904 10.655 
2 104 4.88214 -9.31243 8.66492 
2 18 0.85639 -7.87798 8.73025 
2 158 4.12572 -1.6473 8.57691 
2 268 0.636911 -4.91622 9.8435 
2 182 2.4575 -4.03557 8.39635 
2 371 0.550671 -2.317 9.5642 
1 373 0.859791 -3.7235 8.72311 
1 163 3.34649 -5.40301 8.03575 
1 565 3.21557 -0.370186 8.06184 
2 488 1.60639 -0.579763 8.12611 
2 256 0.0422428 -10.0492 9.67951 
2 504 8.74674 7.09484 -9.37075 
2 321 1.34275 3.7353 -8.52516 
1 379 7.63458 6.22069 -8.54324 
1 217 4.58945 6.66626 -8.45891 
1 109 3.03573 3.89165 -8.57637 
1 79 9.67777 8.33385 -8.76122 
2 328 6.14173 6.73604 -9.05724 
1 493 4.75558 1.43722 -9.34025 
2 342 3.70806 2.70415 -9.57001 
2 570 3.53085 7.9784 -8.46197 
2 395 3.62672 5.35067 -9.13342 
2 35 6.2008 2.27537 -9.01377 
2 330 8.62393 9.51518 -8.46865 
2 292 7.70462 4.54301 -8.62327 
2 472 5.07976 0.0804049 -10.3194 
2 278 4.03814 0.873566 -7.98943 
2 2 7.7709 4.51737 -4.69342 
2 20 2.58082 1.71945 -1.76698 
1 27 5.58419 8.5186 -3.68117 
1 159 8.26654 4.40851 -0.938959 
1 87 2.96748 7.87717 -4.88375 
2 126 6.20275 7.44238 -4.76713 
2 153 2.15886 4.30555 -1.89715 
1 169 6.57163 3.53643 -5.07162 
2 208 6.80689 2.18803 -4.13604 
1 211 7.16553 8.91626 -1.22173 
2 230 8.68135 6.945 -4.47916 
2 232 5.07909 4.28203 -4.88607 
2 276 3.01042 6.2882 -5.17839 
1 277 1.16714 4.96765 -0.852891 
2 286 4.88811 2.20376 -0.708612 
1 317 4.00014 5.13668 -5.88041 
2 340 2.26783 2.48115 -4.26076 
1 349 2.01887 2.88811 -2.74644 
2 378 3.94856 8.4031 -3.55367 
1 415 8.88687 5.40439 -3.91045 
2 431 6.30083 8.08671 -2.29594 
2 455 3.72789 8.68198 -6.12219 
2 478 1.4766 8.57883 -4.76715 
1 507 7.59288 7.52961 -5.61883 
2 72 8.89222 2.88041 -0.654134 
2 30 8.76426 5.05207 -2.34306 
1 301 8.14183 1.2043 -3.81556 
2 324 1.08606 6.55218 -1.33561 
2 443 9.40516 1.94849 -3.02233 
2 190 7.90548 9.07146 -6.08269 
1 331 1.52398 1.44669 -5.25493 
1 389 0.964563 9.96184 -5.53024 
2 392 6.66762 4.05206 -0.916792 
1 37 3.44776 1.43649 -0.462411 
2 142 8.27395 7.82639 -0.608358 
1 569 9.92034 1.95372 -1.44994 
2 436 2.70854 0.564856 -5.841 
2 280 5.98047 10.0053 -4.11653 
2 107 7.61903 6.56975 -6.9335 
2 178 6.46666 3.31894 -6.66001 
2 297 1.48648 9.51098 -7.01362 
1 325 8.7149 0.558207 -6.86559 
2 390 6.04313 9.70865 -0.363448 
2 574 0.869661 2.34077 -6.47793 
1 123 0.360529 7.84534 -0.671021 
2 298 3.41147 3.96358 -6.95786 
2 264 0.404557 2.84943 -2.9002 
1 157 7.81338 10.1594 -7.23521 
2 458 0.367197 9.44269 -0.99566 
2 254 4.78232 5.98999 -6.98778 
2 407 8.10683 10.1074 -1.82964 
1 557 3.10825 9.28112 -7.47921 
2 556 0.596222 0.224612 -4.69745 
2 118 8.81752 0.697731 -5.22379 
2 412 10.1114 0.317464 -1.01548 
2 311 10.2817 4.99799 -4.71198 
2 272 8.35904 1.88408 -7.62823 
2 69 10.5694 7.78752 -7.51351 
1 39 0.229074 2.83765 -7.78712 
2 552 6.34981 10.5615 -7.7622 
1 29 7.26754 3.00859 -7.99946 
2 119 10.5031 6.65741 0.801216 
2 12 3.51185 0.167554 6.58207 
2 514 4.7811 4.59806 0.758903 
2 405 6.9318 6.1004 5.30654 
2 416 3.44268 6.89909 1.95178 
2 122 8.39612 5.38585 0.386776 
1 115 6.71953 8.0843 2.2579 
1 185 2.67647 1.12843 5.53384 
1 89 5.68172 3.33589 0.161813 
2 34 6.59445 8.11318 3.87505 
1 253 2.04973 3.27476 1.72997 
2 575 3.63603 9.06905 0.79157 
2 453 1.22453 7.79315 0.689793 
1 111 7.88685 2.30519 4.20592 
2 491 1.8024 10.5 4.71031 
2 192 9.14214 7.5576 4.2887 
1 375 6.0028 5.02762 4.50814 
2 406 1.2132 6.46656 7.27337 
2 252 5.94221 9.47073 2.00852 
2 201 1.17906 10.018 7.40051 
2 130 2.93676 0.596647 4.09685 
2 84 2.77553 2.21294 0.776531 
1 85 1.20592 10.4622 3.21228 
1 435 2.47733 8.21283 1.6187 
1 175 8.35953 0.770562 6.80229 
2 180 5.32686 9.04321 7.228 
2 214 1.58138 4.4213 0.692139 
2 534 3.25697 2.59999 5.5391 
2 372 4.70836 0.379007 2.28615 
1 19 3.15194 4.01105 4.73476 
1 127 1.21032 4.87611 6.90031 
1 235 4.78138 5.98646 1.7264 
2 558 6.93635 3.68883 4.24319 
2 46 2.90986 3.77012 3.09636 
2 452 6.87466 1.1008 3.53174 
2 381 1.67044 8.91643 2.79525 
2 94 9.95344 0.538673 7.10523 
1 445 8.86799 6.93922 0.593978 
2 501 1.7896 4.79109 5.32401 
2 344 7.72141 8.56257 6.25176 
2 88 1.06129 1.34664 5.69866 
2 489 8.31341 1.98116 5.77015 
1 209 6.64844 9.82901 6.59833 
2 206 8.24048 7.80649 1.85242 
1 195 5.01273 9.95004 0.845363 
1 145 6.25012 0.967676 2.0569 
2 82 4.51034 4.82302 5.0248 
2 251 6.29749 2.36401 1.32552 
2 540 9.35213 2.42299 3.39868 
2 108 5.59484 5.47347 3.03899 
1 437 7.62372 7.53701 4.98795 
2 98 5.89827 7.06726 1.33889 
2 154 0.756848 2.42431 2.16758 
2 74 6.05355 1.80077 10.2759 
1 207 1.66849 7.16427 8.70148 
2 544 3.15988 7.6956 8.4124 
2 304 4.75698 9.38423 9.70971 
1 265 4.88241 0.752494 10.6548 
1 559 2.06576 1.70229 10.3313 
2 464 1.71187 5.91652 9.70323 
2 486 3.86873 4.93059 9.95557 
1 427 6.6017 2.55188 8.94231 
1 529 2.43489 4.44724 9.50578 
2 536 1.71219 3.26241 10.335 
2 428 1.01078 0.39316 10.4074 
1 305 5.20359 5.23028 9.1257 
2 155 6.57227 4.42747 9.6054 
2 527 3.43801 1.37606 11.2879 
1 363 4.65247 8.19155 8.50209 
2 516 0.699781 8.34239 9.27874 
2 90 3.45219 0.967687 8.99405 
2 144 5.54536 6.80544 8.82053 
2 460 2.20495 4.08838 7.90849 
2 198 5.50668 3.48847 8.14922 
2 322 7.52112 1.4554 8.03077 
